
34816 atoms
4 atom types
   0.0000000000   59.0258493907 xlo xhi
   0.0000000000   59.0258493907 ylo yhi
   0.0000000000   59.0258493907 zlo zhi

Atoms # atomic

     1      1   16.6582846953   22.3566846953   54.0943846953
     2      1   43.3681846953   46.3958846953   25.4986846953
     3      1   39.6748846953   14.2654846953    2.1134346953
     4      1   44.8463846953   49.3146846953   55.6618846953
     5      1   32.6585846953    7.0397146953   47.9847846953
     6      1    9.0365146953   23.4129846953   29.9011846953
     7      1   25.8470846953   26.7482846953   24.3912846953
     8      1    5.4809346953    9.2066146953   47.9518846953
     9      1   58.1553846953    7.0726746953   22.0628846953
    10      1   51.1888846953   31.7118846953   24.2964846953
    11      1   57.3782846953    6.7771946953   43.5878846953
    12      1   49.1122846953    5.3061546953   41.4611846953
    13      1   10.0715846953   29.4395846953   30.8868846953
    14      1   24.0229846953   22.0109846953    6.6528746953
    15      1   12.4391846953   26.5056846953   46.0407846953
    16      1   58.1288846953   10.4054846953   47.2750846953
    17      1   57.7463846953   14.5866846953   16.9913846953
    18      1   24.4909846953   15.5157846953   57.1027846953
    19      1   24.7527846953   58.8347846953   28.7523846953
    20      1   27.3235846953   47.8975846953   36.2153846953
    21      1   40.1083846953   41.1682846953    8.8675246953
    22      1    5.8193246953   21.9363846953   46.9189846953
    23      1   33.9033846953   42.2887846953   53.9681846953
    24      1   24.4267846953   45.2746846953   40.1270846953
    25      1   31.1361846953   44.0579846953   44.7221846953
    26      1   53.9633846953    9.1273946953   49.7717846953
    27      1   45.2170846953    6.0264946953   47.9235846953
    28      1   33.1561846953   43.1892846953   46.0279846953
    29      1   38.4060846953   48.5812846953   34.4330846953
    30      1   19.9694846953   29.9947846953   31.6412846953
    31      1   46.5703846953   20.4892846953   18.0141846953
    32      1   27.7396846953   39.1830846953    2.8406046953
    33      1   42.0843846953   28.7694846953   30.1656846953
    34      1   29.7594846953   49.6214846953   58.3194846953
    35      1   54.2707846953    8.8398846953   40.1147846953
    36      1   22.4292846953    1.9045846953    3.6565246953
    37      1   49.7499846953   15.5685846953   37.7353846953
    38      1   48.1718846953    5.1549946953    2.2171946953
    39      1   26.5481846953    0.7895046953   36.1239846953
    40      1   42.8870846953   42.6388846953   33.2927846953
    41      1   37.8450846953    6.3673046953    0.9776846953
    42      1   46.1102846953   22.3696846953    4.1503446953
    43      1   22.6228846953    0.0805776953   56.4586846953
    44      1   18.6296846953   28.2801846953   36.6654846953
    45      1   11.0869846953   19.7259846953   14.0123846953
    46      1   21.1799846953    7.0269946953   29.9120846953
    47      1    0.3779156953   17.3254846953   15.3531846953
    48      1   22.4645846953   16.0947846953   40.8777846953
    49      1   21.0626846953   20.9001846953   53.2263846953
    50      1   24.8779846953   46.4715846953   30.5035846953
    51      1   17.1805846953   18.9840846953   56.8445846953
    52      1   39.9786846953   25.8911846953   21.8719846953
    53      1   35.2807846953    9.1431946953   55.1094846953
    54      1   25.4883846953   10.6586846953   12.6098846953
    55      1   47.1591846953   36.4875846953   22.8857846953
    56      1   33.0160846953    4.0635846953   44.0984846953
    57      1   26.6443846953   49.4245846953   50.4564846953
    58      1   20.1694846953    3.6579246953   21.1790846953
    59      1   49.0728846953   31.8398846953   30.7994846953
    60      1    2.5375746953   26.5632846953   13.7952846953
    61      1   13.2115846953   17.4763846953   43.0542846953
    62      1   27.4903846953   30.9757846953   55.4037846953
    63      1   45.5908846953   25.0105846953   25.9950846953
    64      1    9.0845146953    9.7309946953    3.2184646953
    65      1   54.8012846953   23.2503846953    1.4250046953
    66      1   30.6511846953   14.0647846953   14.2862846953
    67      1   12.0044846953   16.0744846953   13.7750846953
    68      1   29.5762846953    2.8531846953   35.5840846953
    69      1   14.3946846953   14.4331846953   22.0046846953
    70      1   14.3120846953   11.7616846953   53.8408846953
    71      1   42.4906846953   12.3639846953   31.2321846953
    72      1   18.7186846953   31.7654846953   39.2421846953
    73      1   22.6565846953   15.9142846953   55.6249846953
    74      1   45.3785846953   55.6074846953    1.0999846953
    75      1   41.7451846953   47.2417846953   41.6885846953
    76      1   27.0838846953   28.4237846953   38.7113846953
    77      1   16.8553846953    0.9095846953   10.5275846953
    78      1   33.6956846953   41.7164846953   41.3897846953
    79      1   26.3004846953    3.0935546953   57.4890846953
    80      1   45.4330846953   32.8730846953   27.8389846953
    81      1   32.2154846953    9.9823846953    6.8731546953
    82      1   38.6557846953   42.5591846953   18.6588846953
    83      1   28.8137846953   46.4866846953   53.1859846953
    84      1   18.8302846953   24.1300846953   26.4237846953
    85      1   38.9088846953    2.4667546953   53.6678846953
    86      1   46.2817846953   56.9077846953   51.1435846953
    87      1   34.3514846953   14.6024846953   44.5920846953
    88      1   26.6389846953   45.2043846953   21.9582846953
    89      1   31.9970846953   55.2762846953   13.3478846953
    90      1   38.2051846953   45.3635846953   19.7381846953
    91      1   41.3267846953   25.0940846953   49.9169846953
    92      1   26.9351846953   10.7939846953   41.1143846953
    93      1   30.7627846953    5.6246546953    3.4792846953
    94      1   49.9851846953    6.0803846953    3.5816646953
    95      1   34.2466846953   56.9306846953   48.7303846953
    96      1   46.2642846953   11.1992846953   35.7473846953
    97      1   20.8560846953   32.0941846953    7.2453146953
    98      1   54.3076846953   11.7141846953   13.9057846953
    99      1   26.7503846953   13.5227846953   49.4346846953
   100      1   15.2816846953   27.1415846953   48.2459846953
   101      1   19.2437846953    3.4488146953   50.3620846953
   102      1   47.6031846953   29.6200846953   29.9562846953
   103      1   21.6439846953    0.1398276953   52.7095846953
   104      1    8.5208446953   20.1285846953   25.9758846953
   105      1   16.1605846953   29.2011846953    0.4160406953
   106      1    8.3520646953   11.6186846953   25.0703846953
   107      1   35.4010846953   18.0046846953   57.8239846953
   108      1   25.4048846953   18.4037846953   58.9614846953
   109      1   10.5357846953   26.5796846953    3.9311946953
   110      1   34.9687846953   48.7749846953   54.4611846953
   111      1   24.8841846953   31.6033846953   31.5776846953
   112      1   35.6691846953   42.8094846953    7.6476946953
   113      1    7.0166346953   16.6983846953    8.8972646953
   114      1   20.5365846953   23.3850846953   10.4075846953
   115      1   16.9310846953    3.6943446953   19.6365846953
   116      1   27.8464846953   14.4010846953   17.1779846953
   117      1   19.6622846953   26.4228846953   35.2885846953
   118      1   24.2733846953    6.9015046953   23.8118846953
   119      1   18.3204846953   12.0541846953   45.5304846953
   120      1   40.9460846953   11.3359846953   49.9300846953
   121      1   28.8548846953    1.7633646953    8.4439646953
   122      1   49.0991846953   21.2349846953   52.2405846953
   123      1   52.4008846953   27.4156846953   29.2642846953
   124      1   51.5860846953   30.4012846953   53.0515846953
   125      1   47.4249846953   11.2497846953   43.2720846953
   126      1   24.8875846953   22.6812846953   11.8973846953
   127      1    6.4629346953    8.0038046953    5.4131946953
   128      1   38.4092846953   58.5666846953   48.9413846953
   129      1   32.3338846953   10.7166846953   58.4023846953
   130      1   21.2650846953   43.5252846953   16.5424846953
   131      1   21.0255846953    9.2181046953   39.4414846953
   132      1   28.2814846953   42.4233846953    0.4665216953
   133      1   37.2845846953   54.7709846953   52.1987846953
   134      1   13.9698846953    6.7004546953   12.9301846953
   135      1   21.5015846953    8.4615146953   47.4798846953
   136      1   45.0669846953    7.8749446953    7.0388646953
   137      1    5.5880746953   10.4309846953    6.6275346953
   138      1   21.6630846953   24.0803846953   26.0250846953
   139      1   51.7773846953   29.8464846953   24.1117846953
   140      1   42.4723846953   13.1344846953   14.9124846953
   141      1   25.7737846953   36.1057846953   20.2158846953
   142      1   16.3716846953   22.7693846953   31.1456846953
   143      1   35.3738846953   28.5738846953   37.3315846953
   144      1   58.8579846953   11.3648846953   40.2850846953
   145      1   29.6298846953   57.8473846953    9.6891946953
   146      1   46.5904846953   17.9251846953    1.7803446953
   147      1    3.9128746953   26.9962846953   53.9467846953
   148      1   24.8027846953   12.9290846953    9.9918846953
   149      1   46.4199846953   43.9759846953   11.0931846953
   150      1   46.0371846953   37.2221846953   46.2384846953
   151      1   11.2428846953   20.0074846953   16.0005846953
   152      1   21.3696846953   31.5109846953   17.1178846953
   153      1   11.6646846953    7.0340546953   31.5938846953
   154      1   38.2380846953   20.5135846953   25.5589846953
   155      1    2.7615346953   17.8560846953   17.8650846953
   156      1   29.4407846953   22.5435846953   29.0338846953
   157      1   41.9514846953   28.3694846953   32.2246846953
   158      1   45.4175846953    6.4782346953   13.8101846953
   159      1   30.5424846953   43.4910846953   49.3964846953
   160      1   33.8050846953   52.1688846953   55.8047846953
   161      1   13.5877846953    4.1933046953   11.9815846953
   162      1   48.5760846953   34.1241846953   36.3267846953
   163      1   23.5906846953   23.5996846953   17.2577846953
   164      1   39.9847846953    5.4836246953   21.2178846953
   165      1   18.0497846953   29.3570846953   17.0892846953
   166      1   52.4630846953   20.6041846953   10.3923846953
   167      1   10.6634846953   22.5661846953   56.9822846953
   168      1    3.9916046953   10.3533846953   26.8031846953
   169      1   23.2918846953    8.7926146953   17.1673846953
   170      1    8.6819846953   11.7300846953    0.9186246953
   171      1   31.4163846953   48.0952846953   56.6793846953
   172      1   40.6101846953   25.6444846953   11.8169846953
   173      1   13.6884846953    6.7256646953   30.2780846953
   174      1   26.4068846953    9.0046646953   22.3806846953
   175      1   40.6252846953   18.4775846953   22.4699846953
   176      1    7.7516746953   12.5312846953   33.9946846953
   177      1    0.0865526953   10.9909846953   21.6289846953
   178      1   33.4350846953   13.4240846953   36.0990846953
   179      1   49.9775846953   31.9622846953    1.4772946953
   180      1   38.8443846953   43.1535846953   52.8568846953
   181      1   28.5642846953   14.4558846953   47.5057846953
   182      1   12.2237846953    8.4300646953   10.2901846953
   183      1   41.8797846953   16.8347846953   32.5010846953
   184      1    5.8607646953   14.5545846953   10.0062846953
   185      1   49.8053846953   36.9651846953   19.7470846953
   186      1    5.9859546953   14.8368846953   21.4155846953
   187      1   36.9202846953   12.9861846953   33.2395846953
   188      1   54.2124846953   25.6772846953    0.7784346953
   189      1   25.6596846953   18.6792846953   48.5816846953
   190      1   31.5818846953    5.5809546953   46.0740846953
   191      1   46.2694846953   31.7973846953   57.0455846953
   192      1   35.5705846953   49.2795846953   37.5234846953
   193      1   52.9388846953   14.8709846953   52.6384846953
   194      1   46.3790846953   26.0107846953   50.1284846953
   195      1   29.1198846953   27.9196846953    0.9612946953
   196      1   25.2935846953   48.9541846953   45.2514846953
   197      1   47.7242846953   16.9073846953   33.0038846953
   198      1   46.0272846953   10.4329846953   53.9138846953
   199      1   43.2564846953   40.3483846953   14.2092846953
   200      1   26.3390846953   25.0297846953   10.8128846953
   201      1   31.0143846953    2.5285146953   51.0143846953
   202      1   37.4732846953   31.6797846953   36.3826846953
   203      1   39.2828846953   43.9411846953    0.5455616953
   204      1   55.2190846953   27.0344846953    8.6039346953
   205      1   42.5963846953   34.2379846953    9.1761846953
   206      1   18.6570846953   10.2952846953   11.0524846953
   207      1    5.6073946953    8.8270846953    0.6885666953
   208      1   42.6188846953   22.3331846953   32.9260846953
   209      1   54.3073846953   28.8602846953    1.2251246953
   210      1   37.7238846953   12.9895846953   29.6760846953
   211      1   33.2280846953   28.5324846953   23.9335846953
   212      1   58.7743846953   29.5830846953   52.6854846953
   213      1    4.8781046953    6.8667746953   16.2743846953
   214      1   45.3247846953    0.0298196953   24.2732846953
   215      1   29.9771846953   24.0503846953   48.2276846953
   216      1   29.7431846953   24.3006846953   41.1207846953
   217      1    4.5852746953   25.5086846953   24.2302846953
   218      1   24.0053846953   49.1662846953   53.7665846953
   219      1   35.6059846953   40.9603846953    4.8891546953
   220      1   43.7572846953   50.9341846953   45.9592846953
   221      1   31.8041846953    3.2100246953   27.8283846953
   222      1    9.3169946953   21.5746846953   47.5551846953
   223      1   36.1644846953   18.0732846953   24.5287846953
   224      1   52.0545846953   30.3040846953   34.3947846953
   225      1   50.3550846953   21.0536846953   33.6432846953
   226      1   26.1622846953   28.1192846953   52.1234846953
   227      1   33.5389846953   37.5542846953   57.9122846953
   228      1   55.6594846953   25.5452846953   36.7260846953
   229      1   43.6423846953   14.6627846953   31.7610846953
   230      1    8.8349046953    3.1998046953   56.3067846953
   231      1   41.1313846953   28.9632846953   19.8261846953
   232      1   23.4106846953   52.4611846953   22.2405846953
   233      1   36.1755846953   46.7259846953   13.3756846953
   234      1   28.1912846953   45.2909846953   42.8668846953
   235      1   12.1230846953   27.2025846953   40.5565846953
   236      1   39.0490846953   49.0749846953   18.4889846953
   237      1    9.7440046953   15.2372846953   39.4326846953
   238      1   12.6152846953   12.3690846953   41.5409846953
   239      1   50.7444846953   22.6407846953   30.6833846953
   240      1   37.6512846953   52.8003846953    4.1936246953
   241      1   43.6111846953   55.6253846953   21.4657846953
   242      1   10.3320846953   24.9663846953   46.8195846953
   243      1   45.7704846953   27.7903846953    6.0338146953
   244      1   30.0220846953   10.7052846953   39.0885846953
   245      1   23.4789846953   16.9294846953   47.1131846953
   246      1   35.7971846953   10.4646846953    6.5294046953
   247      1   43.1677846953   45.0189846953   11.5391846953
   248      1   36.8881846953   31.9345846953   20.7812846953
   249      1   16.0848846953   15.6474846953   16.5122846953
   250      1   29.8323846953   34.6524846953    3.5440546953
   251      1    4.6533446953   45.0137846953   52.9910846953
   252      1   50.4114846953   16.1135846953   23.4797846953
   253      1   39.5485846953    4.0784746953   10.3011846953
   254      1   21.7200846953   33.9926846953   42.6449846953
   255      1   34.2498846953    7.7644146953   49.4204846953
   256      1    9.4898246953    4.1959546953    4.6659546953
   257      1   32.7581846953   27.3189846953   18.9832846953
   258      1   29.3911846953   51.1184846953   26.5236846953
   259      1   36.2673846953   37.7099846953   37.2374846953
   260      1   37.1369846953   40.0183846953   39.1905846953
   261      1   23.8183846953   11.2849846953   54.0115846953
   262      1   42.1675846953   20.2572846953   36.5231846953
   263      1   56.0044846953    4.7114146953    1.1067546953
   264      1   43.7760846953   28.0153846953   13.7465846953
   265      1   32.0052846953   36.1494846953   53.1274846953
   266      1   21.5681846953   58.4030846953   49.2161846953
   267      1   27.1963846953   32.0410846953   10.0119846953
   268      1   29.2788846953   19.7361846953   17.8366846953
   269      1   34.7312846953   44.1341846953   54.9989846953
   270      1    0.4625006953    6.7689946953    8.9201246953
   271      1   51.3510846953   34.4616846953   30.8340846953
   272      1   44.1733846953   34.4318846953   32.0382846953
   273      1    3.5189346953   11.7756846953   28.9514846953
   274      1   39.9945846953   46.5951846953   37.4290846953
   275      1   44.9742846953   57.0865846953   38.5801846953
   276      1   17.3455846953   11.4033846953   36.8377846953
   277      1   30.7813846953    3.0409346953    1.1014046953
   278      1   56.8772846953   26.5330846953    3.8830446953
   279      1   34.9633846953   10.1434846953   41.3454846953
   280      1   56.3060846953   20.6334846953    1.9022346953
   281      1   48.6605846953   24.0057846953   39.4489846953
   282      1   48.3012846953    9.8135846953   28.8788846953
   283      1   47.8826846953    1.4781146953    7.9581846953
   284      1   45.4498846953   13.5062846953   39.8008846953
   285      1   53.4293846953   20.7844846953   34.8750846953
   286      1   50.8989846953   27.5869846953   47.5332846953
   287      1   48.5379846953    3.3978146953   20.2161846953
   288      1   39.7370846953   49.5457846953    4.2216446953
   289      1   17.0366846953   24.2861846953   52.3215846953
   290      1   33.7270846953   19.0248846953   43.0385846953
   291      1   38.6044846953   40.3528846953   10.9956846953
   292      1   24.6399846953   48.1764846953   22.8107846953
   293      1   49.3140846953   23.1125846953   33.0963846953
   294      1   44.7930846953   43.8826846953   33.5510846953
   295      1   50.3563846953   11.1860846953   23.2483846953
   296      1   53.6346846953    0.1369716953   22.4172846953
   297      1   52.0022846953   32.7536846953   22.7282846953
   298      1   20.4678846953   27.8390846953    7.4786346953
   299      1   40.5118846953   46.6798846953   17.8368846953
   300      1   53.5405846953   26.2352846953   49.9973846953
   301      1   52.7661846953   21.0851846953   37.0558846953
   302      1   55.8475846953   29.9508846953   31.0182846953
   303      1   44.6251846953   56.0405846953   57.5040846953
   304      1   41.9355846953   42.5390846953   48.6482846953
   305      1   28.6392846953    1.0130846953    5.6916146953
   306      1   27.9903846953   44.7282846953   45.8374846953
   307      1   18.2410846953    6.4530346953   58.4906846953
   308      1   47.2057846953   17.4799846953   51.2474846953
   309      1   16.8540846953   10.5993846953   15.6039846953
   310      1   30.8978846953   57.9560846953    1.4484146953
   311      1   58.6468846953   17.0139846953   31.9436846953
   312      1   39.1050846953   57.8820846953   11.1607846953
   313      1   32.0906846953   50.6846846953    8.9378946953
   314      1   31.5097846953   11.7727846953   11.6859846953
   315      1   33.8974846953   14.7627846953   42.3105846953
   316      1   10.7346846953   17.0743846953   46.5534846953
   317      1   42.8158846953   26.5217846953   48.2823846953
   318      1   29.4635846953   22.0423846953   14.2333846953
   319      1   30.5656846953   53.2996846953   26.1036846953
   320      1   20.8404846953   28.0328846953   51.6333846953
   321      1   33.5207846953   42.2642846953    3.4132346953
   322      1   55.4927846953   18.9059846953   49.3610846953
   323      1   25.2870846953    6.8672446953    8.1954546953
   324      1   37.8264846953   48.4534846953    1.9529046953
   325      1   21.1006846953   50.7411846953   49.6180846953
   326      1   48.6162846953   25.0212846953   17.6217846953
   327      1   38.8552846953   29.2861846953   33.8070846953
   328      1   29.2172846953   34.2332846953   56.9607846953
   329      1   30.3393846953    9.7046046953   24.9189846953
   330      1   33.1571846953   16.5206846953   40.5611846953
   331      1   50.4439846953   33.8650846953   57.1961846953
   332      1   11.2552846953    6.5580746953   50.7310846953
   333      1   12.0295846953   16.9949846953   25.1942846953
   334      1   47.5804846953   20.2383846953   11.3583846953
   335      1   43.4393846953   34.9939846953   14.7232846953
   336      1   21.4930846953    4.4385046953   55.3913846953
   337      1   16.0576846953   12.4084846953   55.1950846953
   338      1   48.9295846953    8.1336846953   57.5890846953
   339      1   57.6756846953    5.1005546953   56.0660846953
   340      1   40.5548846953   27.4210846953   16.6619846953
   341      1   51.2391846953   28.1115846953   55.8905846953
   342      1    2.9295446953   13.2476846953   33.8858846953
   343      1   29.9897846953    7.5191246953   28.8314846953
   344      1    5.7457946953    5.8201246953   20.9414846953
   345      1    4.6314646953    1.3888546953   22.4688846953
   346      1   20.0899846953   34.0107846953   11.7167846953
   347      1   43.1781846953   53.4388846953   33.3354846953
   348      1   47.6386846953    2.1765646953    3.6192946953
   349      1   48.9062846953   22.7545846953   19.1142846953
   350      1    4.2988546953    5.7592146953   49.4611846953
   351      1   58.3165846953   10.3460846953   24.9575846953
   352      1   32.7407846953    6.7467946953   21.5263846953
   353      1   25.8797846953   15.0724846953    5.2481746953
   354      1   29.2994846953   42.2391846953   25.5066846953
   355      1   40.9497846953   53.5516846953   10.0656846953
   356      1   25.0115846953   53.9578846953   25.4116846953
   357      1   15.5969846953    3.2929346953    7.8871846953
   358      1   36.4322846953   37.3549846953    9.0549546953
   359      1   44.0035846953   24.1190846953   49.3449846953
   360      1   17.4044846953   13.0113846953    4.6023546953
   361      1   32.1484846953   19.8966846953    7.9535246953
   362      1   53.7171846953   33.9262846953   58.5363846953
   363      1   31.9010846953   30.4208846953   58.5153846953
   364      1   52.6600846953   25.6725846953   47.7097846953
   365      1   34.1514846953    9.8899846953   44.3946846953
   366      1   44.0773846953   50.3028846953   37.4660846953
   367      1   52.8632846953   31.9728846953   58.0467846953
   368      1   41.6167846953   55.3608846953   45.4057846953
   369      1   41.5468846953   20.0248846953   32.1121846953
   370      1   20.9962846953   23.8500846953    1.0486946953
   371      1    1.6204446953   19.0429846953   55.6813846953
   372      1   38.5893846953   25.1756846953   57.8766846953
   373      1   29.1441846953    5.2649546953   16.2675846953
   374      1   57.4300846953    7.4341146953   51.7541846953
   375      1   25.3498846953    6.9309446953   45.8867846953
   376      1   23.1961846953   26.4796846953   46.0947846953
   377      1   29.7778846953   37.3400846953   28.5653846953
   378      1   14.3247846953   21.3927846953   31.0488846953
   379      1   23.8730846953   49.3126846953   19.7821846953
   380      1   53.2350846953   25.0054846953   52.6537846953
   381      1   27.8214846953    5.0848146953   20.2426846953
   382      1   35.4741846953   48.1681846953   39.8857846953
   383      1   30.0491846953   25.8584846953    0.2091786953
   384      1   26.7902846953   35.4591846953   48.5047846953
   385      1   36.4327846953   18.3609846953   33.4725846953
   386      1   46.8986846953   19.6957846953   38.1474846953
   387      1   35.2175846953   53.2889846953   18.2907846953
   388      1   21.0630846953   37.0306846953   18.5578846953
   389      1   21.1282846953    7.8646146953   17.9166846953
   390      1   25.2274846953    2.2659046953   23.2880846953
   391      1   39.5883846953   48.7218846953   40.7373846953
   392      1   35.9121846953   49.8815846953    7.4937546953
   393      1   53.1154846953   26.5431846953   55.7492846953
   394      1    4.5537246953   13.8157846953   19.4043846953
   395      1   15.7515846953    3.0815646953   31.0695846953
   396      1   39.7926846953    3.1857346953   19.9057846953
   397      1   11.2788846953   21.6801846953   53.9214846953
   398      1   46.8161846953    1.0503246953   22.5143846953
   399      1   41.3244846953   49.4086846953   37.2819846953
   400      1   24.0020846953   52.5383846953    6.1630146953
   401      1   14.1116846953    7.9627646953   15.3644846953
   402      1   24.4327846953   45.1764846953    1.9864346953
   403      1   11.1652846953   20.9596846953   37.5156846953
   404      1    6.5459946953    6.6886946953   50.0202846953
   405      1   49.2100846953    7.1516746953   24.9361846953
   406      1    5.2140746953   12.2050846953   33.0864846953
   407      1    7.8055746953   23.0415846953   50.5865846953
   408      1   28.2993846953   50.1590846953   51.8960846953
   409      1   28.3714846953   54.0347846953   26.9314846953
   410      1   52.0824846953    9.2052246953   22.1361846953
   411      1   18.8989846953   18.9235846953   22.5255846953
   412      1   35.2309846953   48.0696846953    6.3348946953
   413      1   30.8126846953   48.9321846953    4.5226846953
   414      1   25.8745846953   47.9105846953   52.7134846953
   415      1   30.7677846953   56.8213846953   42.9196846953
   416      1   30.7108846953    9.8762846953   12.1501846953
   417      1   31.6598846953   47.8580846953   45.8407846953
   418      1   27.6730846953   17.2292846953   46.6000846953
   419      1   43.8524846953   38.2173846953   43.0582846953
   420      1    3.4817546953   20.3242846953   34.7098846953
   421      1    4.2424846953   12.3270846953   38.0204846953
   422      1    5.6408246953   24.2760846953   48.9299846953
   423      1   41.1454846953   23.6749846953    8.3667446953
   424      1   23.2135846953    2.3478046953   56.9484846953
   425      1   49.4933846953   58.2197846953   12.5712846953
   426      1   14.5829846953   15.0884846953   42.9344846953
   427      1   25.0698846953   38.1693846953    5.5437546953
   428      1    8.0810246953   12.0114846953   11.0752846953
   429      1   16.3924846953   13.8530846953   14.0635846953
   430      1   28.3034846953   27.8192846953   37.3396846953
   431      1   24.3621846953    6.8161246953   17.3411846953
   432      1   46.8378846953   24.2504846953   14.6572846953
   433      1   30.4972846953   16.9907846953   30.2141846953
   434      1   43.6736846953   56.9814846953   12.1669846953
   435      1   37.3768846953   27.3798846953   24.7303846953
   436      1   24.4009846953   20.5205846953   28.3760846953
   437      1   38.5721846953   47.3308846953   19.4217846953
   438      1   11.6839846953   14.8883846953   12.0706846953
   439      1   21.0659846953   12.7776846953   31.4614846953
   440      1   49.4573846953   14.2471846953    6.0980946953
   441      1   52.7819846953   18.7188846953   15.1594846953
   442      1   31.6117846953   26.5560846953   32.3442846953
   443      1   50.9081846953   58.5206846953   23.0601846953
   444      1    6.0680746953   13.7656846953    4.9365346953
   445      1   43.9956846953   33.7356846953   54.7998846953
   446      1   34.0971846953   55.9646846953   25.5633846953
   447      1   33.6541846953   29.1017846953    2.4303146953
   448      1   38.0665846953   43.4831846953   46.0737846953
   449      1   35.0041846953   12.2727846953   34.8633846953
   450      1    1.1375146953   20.3457846953    9.6651246953
   451      1    0.6548036953   14.8184846953   15.4394846953
   452      1   50.8020846953   16.5585846953   51.3346846953
   453      1   42.3178846953   51.3035846953   35.4882846953
   454      1   18.0861846953    4.4986246953   28.0679846953
   455      1   36.7260846953    2.5447946953   27.7768846953
   456      1   25.1496846953   26.4257846953   38.4892846953
   457      1   35.8332846953   58.4406846953    4.4944446953
   458      1   50.7365846953    4.2669646953   40.8154846953
   459      1   35.8637846953   24.6617846953    0.9594446953
   460      1    1.0137346953   27.1558846953   41.5639846953
   461      1   21.2421846953   14.1718846953   39.2122846953
   462      1   45.8050846953   51.0358846953   58.8214846953
   463      1   54.4267846953   15.8149846953   26.7432846953
   464      1   38.3697846953    1.6439846953    3.0447246953
   465      1   45.5074846953   18.4907846953   52.5069846953
   466      1   19.1943846953   26.2943846953   42.8706846953
   467      1   33.9818846953   24.6017846953    9.6439746953
   468      1    8.1115046953    9.6227046953   41.9918846953
   469      1   29.9128846953   33.0665846953   21.9626846953
   470      1   13.8306846953   14.3723846953   40.7197846953
   471      1   21.1450846953    5.6980046953   57.0445846953
   472      1    0.6675046953   14.8351846953   44.0771846953
   473      1   35.2773846953    8.3774146953   24.8056846953
   474      1   52.4081846953   30.3775846953   58.6472846953
   475      1   41.5902846953   37.4034846953   41.2917846953
   476      1   45.5445846953   21.0285846953   36.6570846953
   477      1   33.6505846953   25.5716846953   17.5327846953
   478      1   12.9523846953   13.2294846953   13.6209846953
   479      1   24.8926846953   27.3230846953   17.5183846953
   480      1   46.2335846953   12.3328846953    8.7848446953
   481      1    2.3394846953    9.6432746953    2.5942546953