ITEM: TIMESTEP
1500000
ITEM: NUMBER OF ATOMS
34816
ITEM: BOX BOUNDS pp pp pp
2.1873903035327302e-01 5.9249540969636556e+01
2.1873903035327302e-01 5.9249540969636556e+01
2.1873903035327302e-01 5.9249540969636556e+01
ITEM: ATOMS id type x y z
1 1 0.356578 15.1112 39.4568
2 1 37.2058 35.4632 30.1622
3 1 30.6083 26.2394 6.40881
4 1 42.9076 47.8477 56.2628
5 1 17.5959 58.7075 45.2817
6 1 18.4701 28.1814 42.7008
7 1 31.8614 15.3692 28.1119
8 1 58.8866 14.6992 55.4646
9 1 45.2952 5.54259 39.2205
10 1 52.7962 28.3166 20.2941
11 1 54.1976 24.4453 47.6889
12 1 47.8419 0.246547 19.2581
13 1 58.5359 18.9676 34.3967
14 1 48.5564 13.3851 8.2698
15 1 41.9797 28.5977 28.6321
16 1 4.22736 9.10844 50.1602
17 1 5.09534 21.5615 14.1176
18 1 34.1008 22.0656 56.9416
19 1 36.1736 54.4738 41.061
20 1 26.3 39.6002 21.6939
21 1 32.5793 49.6818 7.88523
22 1 48.7813 17.1235 52.0539
23 1 33.2534 39.484 55.7745
24 1 37.3543 54.8213 10.2099
25 1 27.4049 48.0363 30.2497
26 1 48.8092 4.61581 37.301
27 1 53.6088 10.1656 33.1068
28 1 27.1175 50.3632 55.104
29 1 44.4103 49.2853 21.548
30 1 24.4557 47.4287 31.8573
31 1 45.3837 33.1965 7.54818
32 1 15.2519 25.9478 45.3817
33 1 23.0964 35.8398 37.6296
34 1 37.8675 7.19536 4.17635
35 1 11.4947 23.7453 24.6671
36 1 16.8208 3.72722 57.6448
37 1 50.14 5.71662 38.3371
38 1 0.779228 19.1104 45.9017
39 1 39.3702 2.52828 41.5223
40 1 25.3343 21.4484 31.2271
41 1 38.3734 23.2597 1.53843
42 1 45.3704 10.4515 57.7681
43 1 39.8275 6.47364 51.3106
44 1 15.7021 19.1616 36.7386
45 1 26.6374 15.4305 17.0686
46 1 20.218 11.6058 18.5029
47 1 4.8899 20.0001 22.1902
48 1 22.6113 36.2418 45.669
49 1 27.2524 48.4516 52.3413
50 1 19.2516 55.9301 24.9531
51 1 5.98873 14.5505 4.13829
52 1 44.9393 19.0196 13.2816
53 1 20.8741 54.8182 51.712
54 1 25.2466 4.43768 10.7028
55 1 35.3434 14.2925 17.907
56 1 46.1209 6.67743 47.9853
57 1 27.6252 49.1624 43.2876
58 1 15.0621 13.369 17.142
59 1 43.275 38.5512 46.7867
60 1 24.3299 21.1611 29.2598
61 1 11.7814 3.33109 34.806
62 1 37.2079 53.8374 2.65564
63 1 34.9571 10.4025 23.3992
64 1 49.5862 4.95078 14.8785
65 1 56.7632 25.8893 47.9947
66 1 37.7981 15.1764 18.6436
67 1 21.6964 57.7578 11.5852
68 1 26.2003 58.9275 28.1933
69 1 11.9545 15.8706 31.7901
70 1 5.57822 22.3124 47.0437
71 1 48.5951 54.5617 20.8134
72 1 26.0768 40.6885 2.4318
73 1 26.7148 13.0669 54.7139
74 1 59.1535 5.48908 53.4543
75 1 35.0451 39.9943 53.6424
76 1 32.7545 51.2034 40.09
77 1 31.9382 51.3822 21.9777
78 1 15.0648 7.79983 55.7318
79 1 34.5741 11.0626 0.579875
80 1 52.6237 28.8216 33.0321
81 1 42.1297 24.6715 53.0856
82 1 39.1156 36.4034 20.2509
83 1 38.698 47.56 1.39821
84 1 19.24 27.3223 9.4449
85 1 27.5556 14.7734 51.9675
86 1 38.7043 42.3534 52.8878
87 1 40.3876 29.8943 54.4026
88 1 26.0689 41.0285 41.5157
89 1 50.0624 5.53462 12.4678
90 1 27.4131 48.8355 35.8589
91 1 39.5039 18.2086 56.8173
92 1 12.855 16.8533 33.6439
93 1 31.3631 11.8104 13.1915
94 1 11.6978 11.2854 8.88279
95 1 46.8775 1.48941 47.6664
96 1 51.7998 18.0813 25.1957
97 1 16.4812 23.3868 48.5828
98 1 2.36633 9.38755 7.70072
99 1 39.9159 23.8493 42.9485
100 1 54.9311 27.1197 48.2368
101 1 20.4807 56.7417 44.6913
102 1 54.7555 26.2867 33.4076
103 1 20.5152 2.06091 2.79347
104 1 9.18329 22.345 33.3488
105 1 13.3099 26.9605 5.58859
106 1 56.321 12.539 28.6063
107 1 28.6858 12.0528 44.4752
108 1 4.28313 7.91325 4.59859
109 1 9.51808 19.9536 8.15853
110 1 43.1232 52.0402 57.3376
111 1 24.4954 54.0338 6.55935
112 1 53.4247 1.9461 9.37871
113 1 56.2247 10.1744 5.16416
114 1 22.3568 9.27336 28.0341
115 1 20.5461 48.6776 33.2561
116 1 30.3079 20.8794 19.7957
117 1 36.6291 30.5784 42.6538
118 1 33.4271 3.54028 47.5917
119 1 15.8649 4.90244 54.0514
120 1 37.8038 5.19874 54.4098
121 1 34.6671 48.6411 20.4941
122 1 51.8943 30.9815 51.3841
123 1 1.29843 22.4727 46.7252
124 1 2.62265 25.5741 54.9204
125 1 49.9739 21.4458 36.0752
126 1 16.2722 17.2389 11.996
127 1 57.5975 17.804 15.0659
128 1 43.3197 47.1798 47.9886
129 1 30.3777 17.5509 8.54642
130 1 35.1524 52.3964 8.72005
131 1 16.9301 4.50705 49.8148
132 1 35.7069 53.9899 55.577
133 1 41.177 37.834 56.6004
134 1 20.5001 18.5445 1.23294
135 1 16.2539 2.68603 38.993
136 1 51.9749 1.80028 50.0555
137 1 47.49 2.41585 52.9761
138 1 27.2166 20.8706 40.3451
139 1 41.9148 40.7477 36.0805
140 1 38.7301 16.6586 13.5034
141 1 28.5787 18.423 15.4261
142 1 26.9314 26.0402 27.6619
143 1 32.4538 27.8084 30.1065
144 1 20.8072 18.0566 38.5787
145 1 23.4423 43.9731 3.17251
146 1 36.9475 19.3453 57.2983
147 1 1.50937 9.0263 47.0703
148 1 14.6548 18.2059 25.3996
149 1 38.1383 52.5102 18.8738
150 1 45.709 34.2618 23.1744
151 1 37.9581 29.9179 11.3929
152 1 27.5464 39.8907 56.1301
153 1 3.4193 20.1729 36.0475
154 1 53.2452 22.447 58.0376
155 1 6.19067 20.98 18.7724
156 1 18.3904 13.6999 24.5114
157 1 39.0142 25.7297 51.9627
158 1 48.9689 24.3054 52.9747
159 1 26.3012 45.7818 56.8654
160 1 22.7379 3.11339 59.0735
161 1 8.40189 13.7185 19.7207
162 1 8.84138 28.5862 54.5162
163 1 44.1849 45.2672 13.511
164 1 35.1809 5.26601 3.16217
165 1 10.2599 14.9626 0.319546
166 1 57.7355 26.3431 2.1545
167 1 18.1891 34.0492 9.50809
168 1 4.0721 9.95341 15.4464
169 1 27.4237 52.2075 21.705
170 1 7.06532 9.21477 53.1158
171 1 29.4228 59.0523 48.3266
172 1 39.4623 22.7643 9.73869
173 1 4.813 15.1822 36.95
174 1 37.8682 13.0143 40.3665
175 1 41.7072 23.326 19.994
176 1 19.2416 12.4434 43.1078
177 1 8.37805 5.42576 14.1277
178 1 34.6021 1.33274 25.4863
179 1 45.5091 47.5135 0.962246
180 1 46.6968 46.3797 52.5628
181 1 31.0349 18.25 45.7179
182 1 8.53576 18.8232 11.6435
183 1 42.162 14.3723 20.9477
184 1 7.82812 10.0916 23.7101
185 1 44.8638 38.7096 17.8612
186 1 49.6094 14.8505 26.5164
187 1 43.255 58.1993 21.7767
188 1 42.553 22.1222 52.6825
189 1 40.5459 23.4878 45.5481
190 1 35.6222 4.29991 33.7613
191 1 40.8136 27.3187 0.723875
192 1 33.5755 47.7345 48.9229
193 1 2.29172 27.2053 48.666
194 1 54.0594 25.8976 7.02004
195 1 21.0095 36.9077 50.456
196 1 32.5604 11.2293 50.6724
197 1 3.56252 21.9256 28.3884
198 1 46.8044 8.38397 52.9332
199 1 39.8749 43.7869 5.68453
200 1 29.5771 31.4478 21.3368
201 1 32.9185 16.2077 52.2048
202 1 49.1952 33.3572 23.1381
203 1 40.4583 49.6384 1.62202
204 1 48.5008 36.7725 22.1382
205 1 27.5162 35.9808 0.941744
206 1 28.9841 57.8713 30.1035
207 1 4.77308 5.24266 55.1859
208 1 42.624 23.2977 27.8305
209 1 49.2625 16.2278 10.2968
210 1 16.5954 2.89108 25.6207
211 1 42.6947 33.1136 14.7742
212 1 2.63752 27.0494 8.26206
213 1 55.7632 8.69189 1.64569
214 1 49.4815 57.2277 16.8584
215 1 36.5357 29.7424 32.7915
216 1 37.474 25.0156 35.1331
217 1 54.0654 30.951 21.935
218 1 37.4846 48.0654 13.6
219 1 38.3607 58.1781 19.482
220 1 41.5044 45.8033 54.6505
221 1 24.1407 6.73925 11.7019
222 1 7.9729 21.6612 57.8567
223 1 41.6339 12.1102 18.9998
224 1 40.6295 23.7672 31.1982
225 1 47.0305 20.7894 42.0944
226 1 36.7552 11.2716 42.3945
227 1 23.026 46.1338 53.1814
228 1 18.0213 20.8569 37.1063
229 1 43.0311 21.147 25.7794
230 1 18.677 0.731303 4.58441
231 1 54.0473 16.1098 25.3449
232 1 25.8738 49.0587 32.0583
233 1 43.0285 4.16389 11.1227
234 1 24.3332 0.836373 52.3296
235 1 20.4232 31.1394 54.1081
236 1 33.1663 56.6499 3.07416
237 1 19.3907 9.02878 42.5739
238 1 6.25918 7.58659 48.9848
239 1 48.4097 31.8642 16.7812
240 1 32.2058 0.724467 11.5663
241 1 47.805 36.674 37.7369
242 1 8.04942 20.0933 50.5823
243 1 42.3656 32.4808 58.8339
244 1 30.5347 22.6594 51.2593
245 1 30.3904 25.7787 40.4761
246 1 39.1428 11.0489 16.2353
247 1 45.3592 58.7385 6.25444
248 1 29.6449 36.3223 19.6221
249 1 8.22918 5.78496 25.0704
250 1 25.4483 51.0357 56.6952
251 1 0.520268 18.4162 42.6433
252 1 44.8725 0.43601 16.221
253 1 39.7521 24.2477 54.024
254 1 21.2999 34.0001 46.3722
255 1 43.4749 7.06365 2.02971
256 1 57.2855 7.26288 17.9274
257 1 30.918 22.904 8.14569
258 1 21.3349 1.54796 11.6373
259 1 30.3546 22.9035 40.0912
260 1 28.5595 51.3115 3.03176
261 1 18.269 4.22794 12.1552
262 1 39.749 9.3276 27.4707
263 1 57.9324 12.5275 8.56383
264 1 36.2901 33.5843 6.96725
265 1 25.2704 47.5491 44.8644
266 1 26.525 11.2885 49.6187
267 1 23.2134 37.1491 9.81544
268 1 18.3657 0.716667 28.452
269 1 37.1976 49.3729 0.494602
270 1 52.2303 9.92652 8.73079
271 1 44.2294 29.511 24.124
272 1 57.3919 25.9688 43.8782
273 1 18.7262 6.14857 25.3339
274 1 40.0495 56.1357 27.9621
275 1 43.2622 40.377 52.7477
276 1 26.8759 8.62765 44.9696
277 1 17.0864 10.042 1.3646
278 1 53.7333 18.8529 48.7023
279 1 36.6852 19.6989 32.7664
280 1 44.4318 20.5426 43.6118
281 1 46.7954 15.4611 33.6884
282 1 22.6033 17.7328 28.8541
283 1 44.0726 59.1847 9.26224
284 1 49.3561 17.1141 20.6387
285 1 46.8582 37.5307 5.71753
286 1 38.6153 45.0741 1.40938
287 1 32.6139 47.8354 22.2494
288 1 43.8986 36.2448 19.0601
289 1 13.2131 16.7252 47.5875
290 1 20.2779 14.6569 47.1806
291 1 36.9708 34.9056 17.0524
292 1 11.501 21.418 16.957
293 1 45.5673 35.7465 52.466
294 1 40.3481 44.3262 41.1246
295 1 47.8803 17.403 27.9568
296 1 37.0332 4.74372 27.1021
297 1 48.2912 31.718 21.0192
298 1 22.1851 51.7746 56.5608
299 1 40.7525 40.7229 19.7789
300 1 56.6136 17.98 40.354
301 1 57.7408 20.9755 39.1638
302 1 51.1711 14.5065 28.4017
303 1 6.98353 12.5542 50.4847
304 1 26.1447 38.0953 32.4751
305 1 30.0328 53.7001 6.95776
306 1 26.1702 5.74678 48.8266
307 1 29.8565 7.07066 12.547
308 1 50.4773 20.238 42.5953
309 1 56.7225 12.3323 14.5063
310 1 30.9461 2.48946 55.3239
311 1 58.2054 16.3298 19.7001
312 1 37.6149 42.845 13.2071
313 1 51.6962 12.5281 59.2225
314 1 29.5326 8.30675 23.6878
315 1 21.0011 35.4126 57.1867
316 1 21.997 10.3721 44.7676
317 1 27.0533 33.7328 43.2297
318 1 22.4107 6.53636 24.7239
319 1 34.1283 37.0216 30.5172
320 1 24.345 23.6705 53.257
321 1 35.045 54.3142 11.1467
322 1 6.5733 27.3217 3.27163
323 1 29.3585 12.2053 58.7262
324 1 38.3964 49.6369 22.3417
325 1 26.0477 48.1155 50.3198
326 1 54.0633 29.3017 13.0307
327 1 24.4691 39.5266 17.6273
328 1 23.0531 32.6298 12.0871
329 1 19.9795 15.8376 37.3722
330 1 40.0258 4.9588 43.6933
331 1 42.2303 55.1341 13.4509
332 1 36.3132 6.99826 45.8741
333 1 5.59511 18.7929 18.361
334 1 33.371 23.5844 52.568
335 1 50.1758 29.2315 55.271
336 1 23.4191 0.323012 57.8053
337 1 13.5784 23.9332 3.42727
338 1 53.9493 9.64029 42.5622
339 1 45.9465 8.7163 48.4682
340 1 31.943 28.3723 7.31548
341 1 34.3397 25.1307 58.8926
342 1 45.9541 51.7444 37.354
343 1 31.428 13.64 33.3698
344 1 17.8579 5.9045 36.1489
345 1 20.7363 16.2468 18.1322
346 1 24.7602 32.5431 23.4918
347 1 42.9892 44.8986 42.3372
348 1 15.4414 2.72454 50.3001
349 1 38.0118 32.4978 9.97296
350 1 16.277 6.28441 51.5408
351 1 10.4292 21.6065 24.2907
352 1 29.0213 12.7555 23.9409
353 1 37.8202 28.1182 7.19359
354 1 21.4044 36.9401 41.7076
355 1 40.6938 56.5992 12.1496
356 1 22.7907 3.54677 25.8302
357 1 30.3735 53.6096 2.65971
358 1 24.3856 28.7442 10.1411
359 1 45.4888 11.1496 49.0058
360 1 20.5052 7.81291 17.4096
361 1 30.2352 21.7458 21.6709
362 1 52.4798 27.0315 49.9214
363 1 32.9894 32.9898 55.7548
364 1 57.5983 21.736 46.2207
365 1 39.3292 8.8968 30.1557
366 1 44.76 44.7947 27.0565
367 1 39.9041 36.539 15.753
368 1 41.6875 50.8941 38.3187
369 1 31.1127 11.0676 28.7761
370 1 8.01339 23.042 8.30643
371 1 9.20145 28.6466 7.47533
372 1 45.0658 18.8733 3.35082
373 1 40.1827 12.1033 9.78033
374 1 4.32887 9.23585 52.2704
375 1 33.8652 17.3773 29.8864
376 1 2.16367 27.5498 5.3561
377 1 22.7694 3.43584 15.2136
378 1 14.8996 20.28 12.9425
379 1 34.1981 34.8624 32.262
380 1 10.249 23.4711 45.3414
381 1 15.9077 10.3955 11.1778
382 1 41.6602 46.8004 41.8016
383 1 45.4697 21.5096 3.19816
384 1 12.602 26.0034 54.9758
385 1 39.3469 22.8908 21.1608
386 1 56.9847 26.143 31.4769
387 1 37.175 3.56697 17.4858
388 1 23.0249 37.155 49.7806
389 1 20.8598 5.72242 28.2131
390 1 24.0385 50.3707 34.0681
391 1 31.9982 44.5633 33.1981
392 1 43.4493 58.8088 2.64814
393 1 47.6539 28.4608 55.1591
394 1 49.5734 57.7182 20.3607
395 1 17.2947 2.01446 40.7622
396 1 52.0658 10.6123 1.58295
397 1 11.6686 21.6112 57.8939
398 1 52.9225 13.0124 8.09131
399 1 48.3962 30.444 54.4383
400 1 28.0887 54.8409 16.4384
401 1 26.5263 12.8763 1.02174
402 1 23.8204 48.5169 0.740702
403 1 6.51934 23.9231 43.0207
404 1 8.3207 21.6769 44.2112
405 1 52.8772 6.81602 17.8504
406 1 11.222 15.568 45.4891
407 1 4.7003 15.5757 56.4471
408 1 24.7219 2.30545 40.8295
409 1 37.1521 52.5211 22.2006
410 1 1.8376 7.50456 23.2275
411 1 23.1817 15.3832 34.4778
412 1 41.632 7.7456 52.6048
413 1 27.7631 56.14 57.6738
414 1 38.217 29.8051 47.3994
415 1 53.138 5.38198 24.9033
416 1 27.8084 1.67118 9.09643
417 1 42.7022 3.46132 47.4674
418 1 30.3964 23.6822 53.2125
419 1 46.0192 36.2654 30.5703
420 1 26.1053 14.5252 42.9195
421 1 57.2615 14.1168 40.8157
422 1 7.55261 19.1329 47.5398
423 1 34.6223 16.2939 50.4708
424 1 23.6763 57.7347 3.87825
425 1 42.2693 7.74876 58.3884
426 1 40.4499 21.2383 29.3945
427 1 24.3722 45.4577 4.7326
428 1 13.4125 6.04729 53.9712
429 1 9.60323 7.87667 6.88723
430 1 33.4335 18.4431 32.1018
431 1 23.2265 4.93575 12.2187
432 1 47.4846 15.5004 56.7617
433 1 43.4407 33.6157 31.4882
434 1 48.6967 0.361957 52.1833
435 1 29.3644 35.5863 29.546
436 1 26.831 10.022 30.214
437 1 25.5531 32.1643 2.53621
438 1 22.4549 8.63319 12.451
439 1 25.0277 8.64971 43.5437
440 1 56.7839 18.682 54.2452
441 1 16.8802 1.89333 52.3683
442 1 30.9493 23.9596 4.81283
443 1 43.6528 0.573957 24.6869
444 1 2.18369 10.1068 13.0205
445 1 37.6247 36.7952 45.6634
446 1 43.7954 16.0493 23.9585
447 1 28.3479 20.476 16.7981
448 1 44.4307 33.9881 41.1753
449 1 26.3866 59.051 21.0326
450 1 10.7423 24.6395 29.6195
451 1 6.29101 9.59655 13.5048
452 1 51.0212 15.6011 58.3736
453 1 53.6779 5.22512 53.6414
454 1 11.7188 9.14382 32.7645
455 1 47.0823 21.8104 12.832
456 1 1.67986 22.7664 41.588
457 1 43.9361 45.9492 6.04228
458 1 50.4999 9.06404 31.2553
459 1 39.28 20.8112 54.5525
460 1 48.5324 26.0632 42.5387
461 1 28.5002 6.18781 24.695
462 1 35.7418 54.1785 7.15199
463 1 45.9499 22.2451 18.4135
464 1 40.775 1.48051 1.42089
465 1 26.4537 35.4656 52.71
466 1 36.3143 11.4194 37.8072
467 1 23.4811 33.28 18.0412
468 1 14.5893 5.21788 27.7701
469 1 36.6783 22.2394 20.9159
470 1 21.7438 22.5037 44.5925
471 1 15.5253 10.6845 50.1626
472 1 51.5905 9.4957 46.4824
473 1 29.8122 58.9214 21.6465
474 1 54.692 12.5098 54.6209
475 1 43.9689 52.2484 6.50916
476 1 28.9889 20.8204 44.6327
477 1 51.6303 37.3112 43.3547
478 1 16.807 4.70781 3.85948
479 1 21.6321 29.6218 12.7477
480 1 58.0232 25.4644 54.8072
481 1 19.1269 57.4652 5.69509
482 1 19.0639 3.08104 5.43546
483 1 33.7343 24.7866 1.81603
484 1 50.3117 57.254 1.87659
485 1 5.56656 8.82922 29.6141
486 1 25.3843 0.221504 8.34081
487 1 22.6413 34.167 58.5341
488 1 48.2738 19.9509 3.27294
489 1 13.9751 29.113 27.42
490 1 32.8987 1.82189 5.67355
491 1 22.0652 11.0371 54.297
492 1 38.155 12.8318 35.9031
493 1 43.2065 22.3208 40.5645
494 1 34.5403 35.0301 18.1428
495 1 34.4976 24.7543 7.68939
496 1 28.2255 3.35773 11.0506
497 1 27.9283 32.284 3.80274
498 1 20.9759 6.92528 12.7855
499 1 47.2242 57.2585 48.4952
500 1 11.3053 21.9902 53.6522
501 1 47.9965 45.653 3.29335
502 1 36.4811 5.13121 43.8852
503 1 23.4025 22.3957 32.0852
504 1 14.7132 26.6169 56.6664
505 1 16.7309 11.6487 42.4092
506 1 32.7066 57.5759 12.0225
507 1 23.8137 2.8865 48.3943
508 1 8.92281 20.2786 4.32476
509 1 41.6167 7.80438 30.2876
510 1 21.4873 16.7031 12.6737
511 1 45.6528 18.7337 40.3695
512 1 19.7661 10.5744 46.8147
513 1 28.0574 28.6189 56.1957
514 1 17.1543 56.8635 56.17
515 1 6.67718 5.32152 33.8582
516 1 14.6879 2.30548 56.8964
517 1 29.3041 33.0608 6.05637
518 1 42.3005 10.9 16.5455
519 1 10.9847 3.63897 51.8749
520 1 35.3661 2.46078 35.7141
521 1 41.3077 3.44326 1.9831
522 1 46.8632 55.4958 2.56674
523 1 9.4674 5.16886 22.6951
524 1 50.4842 37.9522 30.6095
525 1 27.2022 37.5152 53.6625
526 1 49.3707 44.606 28.9153
527 1 35.2676 8.66573 39.8665
528 1 22.5558 10.6018 5.63453
529 1 44.2698 16.6875 42.8184
530 1 32.8354 41.1585 4.55689
531 1 21.7613 16.0914 46.3442
532 1 38.7002 32.0553 43.248
533 1 23.9153 21.7087 10.1022
534 1 38.0988 29.7889 40.0194
535 1 39.6237 22.4029 3.15337
536 1 45.9455 57.0948 28.4565
537 1 31.0729 16.4284 43.208
538 1 54.9193 32.3941 3.00941
539 1 40.0035 3.91281 36.0293
540 1 56.6022 11.1601 33.5059
541 1 21.4058 17.2158 58.3306
542 1 49.3166 4.18001 6.97039
543 1 9.19522 17.1691 5.96484
544 1 5.29559 7.79579 41.5825
545 1 22.5978 5.77781 2.56597
546 1 43.7525 31.3068 18.2636
547 1 21.797 7.48687 33.7497
548 1 24.7948 34.3607 10.3252
549 1 12.2094 19.6508 8.39249
550 1 23.4831 41.342 16.8038
551 1 36.1049 16.9353 56.703
552 1 38.453 37.3592 25.524
553 1 34.5198 37.4567 18.56
554 1 27.5181 28.441 47.7634
555 1 21.7353 38.8234 45.1931
556 1 33.883 41.4348 49.9799
557 1 16.79 11.4091 24.6115
558 1 15.029 22.9262 30.8069
559 1 22.609 58.019 26.7874
560 1 53.8373 17.7056 39.3756
561 1 34.1536 32.4092 53.2797
562 1 14.9404 29.5312 23.788
563 1 26.2119 49.0525 58.2014
564 1 9.46583 24.5429 40.3301
565 1 20.0525 40.0313 11.9953
566 1 40.7674 13.4112 44.2045
567 1 24.4574 35.3177 0.773834
568 1 10.6112 18.8272 11.4772
569 1 49.0701 20.3603 56.4167
570 1 35.2677 50.0966 38.736
571 1 5.28107 17.3644 27.4706
572 1 55.7949 30.7256 54.497
573 1 26.9054 6.51061 19.1723
574 1 48.3055 15.3374 17.7771
575 1 56.2751 23.5584 26.8943
576 1 46.0359 39.4326 10.8752
577 1 30.7929 50.2104 18.8553
578 1 14.1878 33.0617 38.0708
579 1 46.7651 10.3849 34.1
580 1 5.27669 16.2159 34.3099
581 1 44.7095 8.35191 54.8368
582 1 32.624 39.37 48.6388
583 1 52.1618 34.8384 26.1404
584 1 0.491911 13.3576 50.3474
585 1 31.5871 25.0393 55.5256
586 1 14.3305 2.94308 3.56914
587 1 4.16494 31.1697 3.99704
588 1 11.6735 16.7455 58.4512
589 1 5.51833 24.5528 4.12883
590 1 20.8537 4.44416 7.86909
591 1 27.6557 52.3104 18.6464
592 1 34.0227 3.51142 56.4634
593 1 11.4167 7.82009 51.2301
594 1 2.72652 7.57786 49.952
595 1 53.2324 2.79829 57.2927
596 1 17.4686 9.09163 57.0506
597 1 54.2631 18.8325 16.7751
598 1 28.4406 16.867 56.9591
599 1 43.4424 50.7499 8.1712
600 1 41.7247 3.15911 4.55113
601 1 39.1652 53.9119 9.17617
602 1 24.4628 52.8571 55.2829
603 1 48.0196 9.53122 19.4572
604 1 0.324525 9.74654 7.44639
605 1 42.7342 11.0087 33.6273
606 1 19.9824 22.7642 19.459
607 1 34.0582 24.1091 17.2088
608 1 25.2563 11.5114 30.1318
609 1 27.1039 19.7045 47.2547
610 1 1.14777 29.1743 56.8158
611 1 43.0065 13.9523 26.2393
612 1 40.677 48.4539 20.2773
613 1 17.9721 15.459 30.5762
614 1 29.2053 38.0774 39.6059
615 1 12.2334 18.0786 31.9462
616 1 19.7991 8.66864 11.3724
617 1 25.9318 24.2151 55.2056
618 1 24.1662 15.5459 49.1021
619 1 51.7655 6.23322 57.4576
620 1 12.333 3.0269 4.56413
621 1 14.9111 6.05376 47.213
622 1 19.1947 5.87001 48.6349
623 1 9.97707 9.07644 19.3835
624 1 53.5909 13.7664 19.8569
625 1 8.41994 18.5763 41.3984
626 1 26.6236 43.8066 32.1225
627 1 56.8933 29.7043 20.7242
628 1 34.0232 7.1875 38.2278
629 1 9.36831 20.6056 40.4293
630 1 28.4215 41.0524 12.1308
631 1 58.2423 15.084 31.1848
632 1 36.8086 58.8221 12.9643
633 1 34.0148 29.6245 51.284
634 1 43.3546 48.2607 17.362
635 1 56.2013 24.1789 22.1014
636 1 27.247 21.2814 19.1298
637 1 15.2513 24.2777 50.4857
638 1 38.2301 33.1517 24.7241
639 1 28.184 53.423 34.2978
640 1 29.8737 33.9895 55.6995
641 1 35.7909 12.1049 10.6709
642 1 17.6563 29.3178 9.82645
643 1 17.8628 49.1093 16.1095
644 1 30.9063 32.6354 1.02189
645 1 27.4541 39.5574 52.93
646 1 19.1986 13.0116 7.55977
647 1 51.4429 13.6464 19.9105
648 1 7.7682 26.3016 20.3535
649 1 6.99136 14.9337 29.1736
650 1 42.0187 23.0846 2.38349
651 1 30.1121 9.51659 40.1145
652 1 17.7855 13.9511 21.7472
653 1 2.63359 16.1968 57.4919
654 1 19.2804 11.6032 40.7476
655 1 47.4853 0.566149 5.03151
656 1 12.579 4.839 3.05153
657 1 6.48058 12.4003 41.3922
658 1 20.6789 8.25277 3.36001
659 1 17.5725 49.2904 56.6495
660 1 36.0285 14.8678 15.6808
661 1 33.5988 15.9053 32.6468
662 1 56.1004 23.9316 32.652
663 1 13.8581 27.3701 52.8991
664 1 18.8327 10.1822 15.935
665 1 7.6715 14.7307 1.31615
666 1 54.2912 28.0773 24.2481
667 1 54.5303 7.67673 13.4247
668 1 8.29235 22.5638 14.6044
669 1 13.2947 19.7177 33.593
670 1 34.1416 24.0428 20.281
671 1 44.5213 22.4403 23.7951
672 1 32.8028 33.9012 4.60766
673 1 54.6331 16.6954 54.4181
674 1 22.5979 19.0944 0.595109
675 1 3.54792 51.9982 10.5189
676 1 33.0302 28.701 27.1943
677 1 45.9385 23.4612 33.2471
678 1 26.4494 34.0222 8.57381
679 1 21.0749 23.2103 51.1464
680 1 53.1877 11.548 38.2794
681 1 7.45365 32.281 5.84589
682 1 35.0839 4.84597 25.2928
683 1 26.1806 29.9196 56.7565
684 1 14.2662 6.62956 25.5172
685 1 43.7537 20.5539 52.3226
686 1 52.062 18.5743 50.3112
687 1 32.6403 34.1644 47.7102
688 1 4.35082 26.6564 41.3112
689 1 14.9441 57.6828 21.7592
690 1 8.20248 13.8819 32.6474
691 1 42.2181 34.3851 52.5923
692 1 47.3895 27.8346 28.3681
693 1 10.5275 30.8157 9.72959
694 1 44.5361 32.0341 49.9541
695 1 25.4851 26.6879 40.012
696 1 51.0109 30.237 37.7902
697 1 20.2548 18.9501 36.7379
698 1 51.121 21.1932 34.0033
699 1 27.4925 55.0117 49.7766
700 1 31.6925 45.3848 5.64333
701 1 29.8095 12.3861 20.0294
702 1 51.7785 9.40653 13.5238
703 1 30.7865 41.3083 46.9828
704 1 33.674 18.5551 23.4506
705 1 14.3526 27.1077 10.0973
706 1 33.1273 29.5634 10.3282
707 1 23.8289 31.3441 4.10677
708 1 44.7727 5.93082 35.5293
709 1 45.6499 18.3841 55.2475
710 1 36.3375 24.9304 56.7542
711 1 48.6911 26.5691 20.3263
712 1 53.2247 14.6753 21.9611
713 1 31.6892 35.0451 3.45343
714 1 0.588048 23.8074 37.576
715 1 36.1891 39.9762 22.0281
716 1 45.2527 2.57495 10.869
717 1 48.5794 36.5337 19.0863
718 1 14.0205 29.2017 41.2004
719 1 26.7398 15.2847 8.54772
720 1 16.7984 12.6039 14.8962
721 1 37.1539 0.719325 57.2336
722 1 2.04736 22.2478 34.578
723 1 14.1446 17.8155 12.0491
724 1 26.0648 24.0115 0.329989
725 1 37.1378 36.4123 36.4996
726 1 34.8598 21.5902 17.0833
727 1 20.137 22.6035 30.5393
728 1 36.6168 17.5905 24.8677
729 1 21.9545 55.5125 2.26549
730 1 58.7321 27.0877 13.4107
731 1 29.9351 57.5888 14.8557
732 1 53.9087 15.5681 33.0397
733 1 32.8291 51.1022 2.55024
734 1 7.94223 11.9669 39.0775
735 1 37.4701 18.0771 8.60876
736 1 33.1071 26.4354 6.71708
737 1 56.0732 12.7769 25.8638
738 1 27.6704 27.0893 2.48918
739 1 53.8877 27.3124 52.1535
740 1 34.9999 13.4661 1.26221
741 1 53.7636 28.3454 5.40358
742 1 37.6128 25.6243 23.9558
743 1 19.6896 1.93064 7.00945
744 1 53.4664 2.93698 14.6487
745 1 46.033 46.4829 12.7244
746 1 31.3831 23.157 28.5987
747 1 35.943 31.0767 44.963
748 1 28.0159 8.94485 2.49671
749 1 21.3829 32.6817 56.0438
750 1 0.793473 5.2478 15.187
751 1 42.0827 21.6858 12.8786
752 1 33.9605 23.4294 11.8361
753 1 37.3449 31.6924 46.3457
754 1 31.1126 40.9657 29.2075
755 1 38.0387 56.9917 33.909
756 1 34.8243 38.316 45.1056
757 1 6.77286 27.7443 7.95762
758 1 31.491 39.7344 7.18134
759 1 41.8484 39.5538 22.1665
760 1 28.2754 34.9656 20.9996
761 1 25.8914 8.71671 9.02916
762 1 24.9962 13.7112 8.95579
763 1 48.5116 15.5313 0.308565
764 1 39.3509 49.7049 18.8575
765 1 8.19046 12.6689 48.1421
766 1 24.794 15.8743 44.2627
767 1 28.3211 27.9201 32.056
768 1 27.9695 7.43187 7.85687
769 1 39.21 23.0916 24.4473
770 1 2.64828 13.488 30.846
771 1 26.1308 3.36198 8.98698
772 1 25.9856 51.1657 19.6298
773 1 44.4624 1.782 48.7848
774 1 36.2576 25.9116 8.20413
775 1 39.5052 36.4397 55.6903
776 1 1.03815 20.1639 32.0652
777 1 31.937 23.9909 41.7977
778 1 26.9103 19.6534 34.9655
779 1 44.4289 54.2031 12.925
780 1 23.7773 21.4849 39.7923
781 1 35.7085 16.3161 3.00766
782 1 22.2907 33.626 24.2891
783 1 33.7152 45.8826 52.7663
784 1 17.5218 10.5065 29.8527
785 1 35.4059 34.1082 1.16108
786 1 35.895 48.5416 48.4493
787 1 30.8679 5.1706 11.0157
788 1 34.1559 52.6754 46.5963
789 1 13.9838 8.39477 36.3343
790 1 55.0672 16.4493 15.594
791 1 19.4623 0.225543 51.4517
792 1 48.6669 35.4404 14.0562
793 1 15.9267 7.12505 44.1932
794 1 45.9441 31.0127 56.555
795 1 43.3627 34.9682 36.3885
796 1 28.0613 52.2266 26.9846
797 1 17.2566 19.4354 21.0876
798 1 8.48908 9.90572 55.6535
799 1 44.2006 9.88088 15.0882
800 1 47.5161 16.2991 3.57404
801 1 22.8334 52.9612 36.4988
802 1 47.0762 0.444829 2.43998
803 1 28.6258 1.50477 46.7416
804 1 34.8811 25.7646 48.0675
805 1 58.6038 6.93566 13.4955
806 1 17.6553 21.6928 10.7278
807 1 43.2934 36.5881 39.304
808 1 27.1864 0.768923 36.5987
809 1 45.1477 59.2318 0.515149
810 1 43.6952 8.46896 4.05664
811 1 49.1115 9.28765 56.8042
812 1 3.0138 19.07 8.33041
813 1 52.8593 24.069 51.7009
814 1 50.4893 23.9794 4.28468
815 1 22.8312 8.59782 7.37125
816 1 0.696482 13.2808 41.6074
817 1 18.3822 21.7161 57.7053
818 1 3.35397 20.8867 57.223
819 1 48.0207 15.45 14.9234
820 1 39.0085 20.9915 14.8238
821 1 44.9624 1.32961 26.841
822 1 19.9538 18.2867 16.8468
823 1 50.9411 22.2221 59.2453
824 1 53.0447 12.8463 2.88651
825 1 52.6892 2.60068 52.5274
826 1 16.9201 1.39996 57.7161
827 1 15.9155 56.1359 4.07421
828 1 18.9908 30.3651 46.7653
829 1 51.1496 16.7245 13.8871
830 1 46.2003 14.5166 2.85185
831 1 52.3136 6.08591 21.2662
832 1 26.0796 31.1534 29.7607
833 1 32.0185 55.1078 3.70637
834 1 27.8986 55.2819 2.74472
835 1 28.691 56.0807 43.3241
836 1 34.7345 37.8101 42.8945
837 1 41.7803 35.6348 5.50515
838 1 46.3959 7.00683 57.839
839 1 40.0109 29.4428 49.1238
840 1 35.0956 17.9866 10.5438
841 1 6.58706 25.7861 11.096
842 1 14.9528 16.9329 50.374
843 1 24.5398 53.2644 26.9117
844 1 35.6311 18.5934 34.1906
845 1 34.0014 17.5457 7.72009
846 1 33.3036 9.97197 29.1485
847 1 38.1785 58.9141 27.1004
848 1 0.838521 20.8265 12.022
849 1 29.9755 52.6461 22.4361
850 1 55.2453 24.996 19.8643
851 1 28.9142 30.2292 17.5816
852 1 35.9478 32.2831 25.8746
853 1 43.5433 58.5548 41.4946
854 1 41.5617 8.81578 50.7567
855 1 54.1458 5.29094 14.1537
856 1 7.9899 13.9747 6.90351
857 1 28.8992 53.5449 30.2845
858 1 16.9643 15.8515 40.4636
859 1 38.4162 5.82749 45.6082
860 1 41.7131 2.33642 24.9526
861 1 50.2589 11.2846 15.729
862 1 20.7641 29.1886 52.2996
863 1 38.1549 13.1502 56.3011
864 1 38.7587 24.8261 21.2098
865 1 24.3272 17.7877 32.8117
866 1 40.6754 36.5686 7.9331
867 1 31.136 30.1194 0.857177
868 1 43.4696 27.9823 48.5745
869 1 43.5521 11.7639 22.4228
870 1 37.7026 41.9278 26.8868
871 1 56.8603 25.8955 0.238248
872 1 35.7524 33.8145 23.5324
873 1 40.0352 6.34881 38.8626
874 1 26.0599 53.4814 51.0677
875 1 38.8003 36.4745 52.9509
876 1 8.87201 10.4926 28.7519
877 1 53.3035 33.6388 24.339
878 1 25.3884 49.7909 42.7408
879 1 5.24308 4.30506 57.3194
880 1 28.325 33.2542 27.9896
881 1 50.496 13.5949 54.645
882 1 12.7389 19.9816 5.70474
883 1 18.3549 5.92962 58.5635
884 1 39.1979 36.936 35.7593
885 1 44.7164 45.0639 35.7367
886 1 37.4236 33.1581 2.52815
887 1 17.0871 11.2849 21.7443
888 1 20.0437 7.61722 6.911
889 1 31.6608 28.2503 36.9283
890 1 20.697 32.7954 10.0108
891 1 43.7653 2.36013 43.8336
892 1 4.73775 14.6309 15.6528
893 1 31.6093 33.5109 28.9246
894 1 22.4342 47.0775 55.3562
895 1 44.2334 30.4913 9.42108
896 1 19.2703 22.9193 48.8297
897 1 37.4114 5.64651 57.8576
898 1 46.489 1.51299 17.0756
899 1 42.0672 1.28904 3.92237
900 1 31.2867 32.3997 54.8993
901 1 34.9575 7.09876 33.2107
902 1 20.5819 24.9389 44.3822
903 1 35.072 42.6575 5.44954
904 1 51.9755 26.7643 9.56513
905 1 51.5777 19.5176 2.04113
906 1 39.9399 58.3146 41.2037
907 1 42.3591 7.11999 55.1224
908 1 52.8316 12.4045 22.5798
909 1 46.3495 12.8843 52.7003
910 1 23.3988 51.1459 54.2998
911 1 11.5394 23.8359 47.7335
912 1 11.1915 16.5192 54.0567
913 1 55.7213 28.2597 16.6417
914 1 56.9337 21.0283 15.0211
915 1 52.4373 50.7948 8.32951
916 1 27.0727 40.0934 11.009
917 1 17.5672 28.7143 45.6105
918 1 31.0613 20.8426 3.66136
919 1 25.0701 46.3583 21.4047
920 1 38.9347 28.2299 0.340391
921 1 4.77847 8.42167 26.8989
922 1 1.51706 10.1194 42.0228
923 1 25.4177 11.8358 10.0968
924 1 46.9801 48.9651 54.6879
925 1 48.1754 34.4622 28.7632
926 1 23.4683 33.1328 44.6657
927 1 57.1852 18.6948 13.0003
928 1 28.5399 19.5408 27.7202
929 1 14.5653 4.83823 42.6142
930 1 10.704 9.06898 4.918
931 1 29.2616 4.19554 13.2993
932 1 5.18267 12.5541 39.3845
933 1 3.88901 17.1644 40.091
934 1 29.9418 52.1718 59.1615
935 1 23.6182 7.23045 0.361459
936 1 26.2915 37.2107 55.6944
937 1 41.3704 9.20323 36.3405
938 1 40.3775 15.1077 53.0168
939 1 41.5438 44.6571 49.9576
940 1 57.3666 19.4892 57.1073
941 1 44.676 28.1221 52.0748
942 1 11.1139 6.43286 53.583
943 1 20.4471 51.3283 19.1988
944 1 43.1287 2.16891 34.5103
945 1 41.8702 31.7965 3.517
946 1 38.3118 49.5486 55.9427
947 1 37.3275 14.6688 57.6037
948 1 21.9497 12.3535 40.5685
949 1 19.9809 37.5565 6.78478
950 1 34.2155 0.39614 4.97994
951 1 40.2601 2.68559 14.9263
952 1 18.6045 14.8965 55.2142
953 1 30.8156 12.7695 44.9658
954 1 54.4076 1.06454 13.0271
955 1 29.4317 30.5383 58.6454
956 1 30.613 46.723 7.76014
957 1 36.9857 16.1943 37.1157
958 1 12.3402 22.0675 51.4905
959 1 41.2947 54.4742 35.0583
960 1 50.4612 16.7819 3.45747
961 1 37.9735 52.8193 7.35565
962 1 32.2477 57.2103 29.4566
963 1 35.5321 5.62308 35.6024
964 1 46.5041 8.54533 56.3157
965 1 5.77166 14.2529 20.385
966 1 14.3742 22.575 14.4976
967 1 42.9745 12.5069 32.379
968 1 37.2605 2.14118 31.5446
969 1 32.5816 15.5534 49.4698
970 1 38.1231 22.8108 16.8303
971 1 13.6698 3.13923 30.3686
972 1 35.6888 28.1075 7.82073
973 1 11.3367 10.0031 27.6746
974 1 18.7222 14.9799 45.379
975 1 5.92015 16.5657 16.4399
976 1 22.0971 49.0266 54.5995
977 1 34.2262 11.2204 56.9907
978 1 32.1114 34.6391 31.5998
979 1 22.4452 10.2689 22.1825
980 1 46.6936 12.0636 11.5551
981 1 17.9186 58.0456 0.752301
982 1 24.491 47.8513 4.09548
983 1 58.9783 16.7457 25.7563
984 1 34.1954 26.0606 34.6779
985 1 45.1459 15.3935 54.5811
986 1 24.8099 6.02631 28.6735
987 1 13.0864 19.447 24.1551
988 1 33.9214 45.179 38.0989
989 1 24.6653 42.8043 17.869
990 1 17.5625 8.15538 17.5075
991 1 18.2535 18.5088 35.9138
992 1 15.774 18.6458 55.7776
993 1 50.8211 56.9679 18.7696
994 1 56.4529 8.1895 48.0313
995 1 33.6099 12.3934 8.81663
996 1 58.1109 15.3426 0.416618
997 1 20.1944 13.5375 2.36106
998 1 6.91073 5.81532 56.5879
999 1 1.70305 11.1408 58.0326
1000 1 10.5426 22.7657 36.7069
1001 1 3.4681 13.1794 58.2822
1002 1 16.5199 16.6094 9.7156
1003 1 27.373 2.98784 14.3471
1004 1 57.5683 28.9698 26.1834
1005 1 24.544 26.1994 13.9812